<?xml version="1.0" encoding="UTF-8"?>

<!-- generated on 2022-12-14 16:59:14 by Eclipse SUMO GUI Version 1.15.0
<configuration xmlns:xsi="http://www.w3.org/2001/XMLSchema-instance" xsi:noNamespaceSchemaLocation="http://sumo.dlr.de/xsd/sumoConfiguration.xsd">

    <input>
        <net-file value="../../02-2_intelligent_lights/set/intelligent_traffic.net.xml"/>
        <route-files value="../../02-2_intelligent_lights/set/intelligent_traffic.rou.xml"/>
    </input>

    <output>
        <tripinfo-output value="../../02-2_intelligent_lights/output/intelligent_lights_output_file.xml"/>
    </output>

    <time>
        <begin value="0"/>
        <end value="15000"/>
        <step-length value="0.01"/>
    </time>

    <report>
        <duration-log.statistics value="true"/>
    </report>

    <traci_server>
        <remote-port value="36253"/>
    </traci_server>

    <gui_only>
        <gui-settings-file value="../../02-2_intelligent_lights/set/intelligent_traffic.gui.xml"/>
        <start value="true"/>
    </gui_only>

</configuration>
-->

<detector xmlns:xsi="http://www.w3.org/2001/XMLSchema-instance" xsi:noNamespaceSchemaLocation="http://sumo.dlr.de/xsd/det_e1_file.xsd">
    <interval begin="0.00" end="300.00" id="junction_0_D0.0" nVehContrib="14" flow="168.00" occupancy="1.12" speed="16.60" harmonicMeanSpeed="16.60" length="4.00" nVehEntered="14"/>
    <interval begin="0.00" end="300.00" id="junction_0_D0.1" nVehContrib="11" flow="132.00" occupancy="4.04" speed="10.73" harmonicMeanSpeed="3.63" length="4.00" nVehEntered="11"/>
    <interval begin="0.00" end="300.00" id="junction_0_D0.2" nVehContrib="13" flow="156.00" occupancy="5.00" speed="10.71" harmonicMeanSpeed="3.47" length="4.00" nVehEntered="13"/>
    <interval begin="0.00" end="300.00" id="junction_0_D1.0" nVehContrib="16" flow="192.00" occupancy="1.29" speed="16.60" harmonicMeanSpeed="16.60" length="4.00" nVehEntered="16"/>
    <interval begin="0.00" end="300.00" id="junction_0_D1.1" nVehContrib="15" flow="180.00" occupancy="3.77" speed="10.85" harmonicMeanSpeed="5.31" length="4.00" nVehEntered="15"/>
    <interval begin="0.00" end="300.00" id="junction_0_D1.2" nVehContrib="10" flow="120.00" occupancy="7.21" speed="7.86" harmonicMeanSpeed="1.85" length="4.00" nVehEntered="10"/>
    <interval begin="0.00" end="300.00" id="junction_0_D2.0" nVehContrib="13" flow="156.00" occupancy="1.04" speed="16.60" harmonicMeanSpeed="16.60" length="4.00" nVehEntered="13"/>
    <interval begin="0.00" end="300.00" id="junction_0_D2.1" nVehContrib="13" flow="156.00" occupancy="8.71" speed="8.11" harmonicMeanSpeed="1.99" length="4.00" nVehEntered="13"/>
    <interval begin="0.00" end="300.00" id="junction_0_D2.2" nVehContrib="18" flow="216.00" occupancy="8.41" speed="9.82" harmonicMeanSpeed="2.85" length="4.00" nVehEntered="18"/>
    <interval begin="0.00" end="300.00" id="junction_0_D3.0" nVehContrib="12" flow="144.00" occupancy="0.96" speed="16.60" harmonicMeanSpeed="16.60" length="4.00" nVehEntered="12"/>
    <interval begin="0.00" end="300.00" id="junction_0_D3.1" nVehContrib="11" flow="132.00" occupancy="3.40" speed="10.89" harmonicMeanSpeed="4.32" length="4.00" nVehEntered="11"/>
    <interval begin="0.00" end="300.00" id="junction_0_D3.2" nVehContrib="18" flow="216.00" occupancy="6.49" speed="9.86" harmonicMeanSpeed="3.70" length="4.00" nVehEntered="18"/>
    <interval begin="300.00" end="360.00" id="junction_0_D0.0" nVehContrib="3" flow="180.00" occupancy="1.20" speed="16.60" harmonicMeanSpeed="16.60" length="4.00" nVehEntered="3"/>
    <interval begin="300.00" end="360.00" id="junction_0_D0.1" nVehContrib="2" flow="120.00" occupancy="0.95" speed="14.32" harmonicMeanSpeed="13.96" length="4.00" nVehEntered="2"/>
    <interval begin="300.00" end="360.00" id="junction_0_D0.2" nVehContrib="3" flow="180.00" occupancy="6.21" speed="8.29" harmonicMeanSpeed="3.49" length="4.00" nVehEntered="4"/>
    <interval begin="300.00" end="360.00" id="junction_0_D1.0" nVehContrib="2" flow="120.00" occupancy="0.80" speed="16.60" harmonicMeanSpeed="16.60" length="4.00" nVehEntered="2"/>
    <interval begin="300.00" end="360.00" id="junction_0_D1.1" nVehContrib="3" flow="180.00" occupancy="11.98" speed="6.35" harmonicMeanSpeed="1.67" length="4.00" nVehEntered="3"/>
    <interval begin="300.00" end="360.00" id="junction_0_D1.2" nVehContrib="2" flow="120.00" occupancy="0.80" speed="16.60" harmonicMeanSpeed="16.60" length="4.00" nVehEntered="2"/>
    <interval begin="300.00" end="360.00" id="junction_0_D2.0" nVehContrib="2" flow="120.00" occupancy="0.80" speed="16.60" harmonicMeanSpeed="16.60" length="4.00" nVehEntered="2"/>
    <interval begin="300.00" end="360.00" id="junction_0_D2.1" nVehContrib="3" flow="180.00" occupancy="5.79" speed="8.23" harmonicMeanSpeed="3.46" length="4.00" nVehEntered="3"/>
    <interval begin="300.00" end="360.00" id="junction_0_D2.2" nVehContrib="3" flow="180.00" occupancy="1.24" speed="16.14" harmonicMeanSpeed="16.11" length="4.00" nVehEntered="3"/>
    <interval begin="300.00" end="360.00" id="junction_0_D3.0" nVehContrib="2" flow="120.00" occupancy="0.80" speed="16.60" harmonicMeanSpeed="16.60" length="4.00" nVehEntered="2"/>
    <interval begin="300.00" end="360.00" id="junction_0_D3.1" nVehContrib="2" flow="120.00" occupancy="6.52" speed="9.06" harmonicMeanSpeed="2.79" length="4.00" nVehEntered="3"/>
    <interval begin="300.00" end="360.00" id="junction_0_D3.2" nVehContrib="2" flow="120.00" occupancy="0.80" speed="16.59" harmonicMeanSpeed="16.59" length="4.00" nVehEntered="2"/>
</detector>
